TITLE = "SU2 Simulation"
VARIABLES = "Iteration","CL","CD","CSF","CMx","CMy","CMz","CFx","CFy","CFz","CL/CD","AoA","Custom_ObjFunc","Res_Flow[0]","Res_Flow[1]","Res_Flow[2]","Res_Flow[3]","Res_Flow[4]","Linear_Solver_Iterations","CFL_Number","Time(min)"
ZONE T= "Convergence history"
           0, -2.39874706e-01, 5.14901618e-01, -2.70076580e-01, -3.83484616e-01, 3.86388172e-01, -9.55410556e-01, 5.01641891e-01, -2.70076580e-01, -2.66493834e-01, -4.65865124e-01, -3.00000000e+00, 0.00000000e+00, -3.84150302e+00, -3.84209861e+00, -1.34721793e+01, -5.12270285e+00, -2.04216247e+00, 3.0000000000, 5.0000000000, 0.0315397500
           1, -1.86217144e-01, 3.27478318e-01, -1.55624554e-01, -2.85113813e-01, 2.86885756e-01, -5.96119796e-01, 3.17283668e-01, -1.55624554e-01, -2.03100831e-01, -5.68639612e-01, -3.00000000e+00, 0.00000000e+00, -3.12599552e+00, -2.50616093e+00, -2.64328179e+00, -2.56666376e+00, -1.32347377e+00, 3.0000000000, 1.0010000000, 0.0672439833
           2, -1.16503389e-01, 1.07756553e-01, -2.73554991e-02, -1.72749291e-01, 1.55820016e-01, -1.73101759e-01, 1.01511560e-01, -2.73554991e-02, -1.21983267e-01, -1.08117220e+00, -3.00000000e+00, 0.00000000e+00, -3.06024546e+00, -2.45875113e+00, -2.59864616e+00, -2.53249992e+00, -1.26212749e+00, 3.0000000000, 1.0010000000, 0.1029808000
           3, -7.95265647e-02, 1.00715459e-02, 2.64897481e-02, -1.17216679e-01, 8.70617098e-02, 1.97083862e-02, 5.89564442e-03, 2.64897481e-02, -7.99446803e-02, -7.89616264e+00, -3.00000000e+00, 0.00000000e+00, -3.11655637e+00, -2.51449922e+00, -2.63486303e+00, -2.59085142e+00, -1.32424174e+00, 3.0000000000, 1.0010000000, 0.1386065500
           4, -6.25194440e-02, 3.40277390e-03, 2.61356038e-02, -8.73995774e-02, 5.70551582e-02, 3.74738975e-02, 1.26095631e-04, 2.61356038e-02, -6.26118507e-02, -1.83730820e+01, -3.00000000e+00, 0.00000000e+00, -3.19395218e+00, -2.58995331e+00, -2.69171574e+00, -2.64719580e+00, -1.40493985e+00, 3.0000000000, 1.0680449470, 0.1742441833
           5, -6.29617533e-02, 2.88728724e-02, 8.32887482e-03, -8.12871004e-02, 5.71784032e-02, -7.60342063e-03, 2.55381396e-02, 8.32887482e-03, -6.43865558e-02, -2.18065430e+00, -3.00000000e+00, 0.00000000e+00, -3.22132519e+00, -2.63868150e+00, -2.73613702e+00, -2.68582292e+00, -1.42972755e+00, 3.0000000000, 1.1675821291, 0.2097464000
