TITLE = "SU2 Simulation"
VARIABLES = "Iteration","CL","CD","CSF","CMx","CMy","CMz","CFx","CFy","CFz","CL/CD","AoA","Custom_ObjFunc","Res_Flow[0]","Res_Flow[1]","Res_Flow[2]","Res_Flow[3]","Res_Flow[4]","Linear_Solver_Iterations","CFL_Number","Time(min)"
ZONE T= "Convergence history"
           0, -1.51710860e-01, 3.10215004e-01, -1.47705585e-01, -1.98670591e-01, 2.56697779e-01, -5.50153882e-01, 3.10215004e-01, -1.47705585e-01, -1.51710860e-01, -4.89050685e-01, 0.00000000e+00, 0.00000000e+00, -3.90695434e+00, -3.90695434e+00, -1.45252852e+01, -1.45151490e+01, -3.09961149e+00, 2.0000000000, 5.0000000000, 0.0336126167
           1, -1.42041810e-01, 2.53922060e-01, -1.06117971e-01, -1.84475889e-01, 2.27007704e-01, -4.31997750e-01, 2.53922060e-01, -1.06117971e-01, -1.42041810e-01, -5.59391376e-01, 0.00000000e+00, 0.00000000e+00, -2.96754484e+00, -2.71774109e+00, -2.95639310e+00, -2.91519159e+00, -2.15343209e+00, 2.0000000000, 1.0010000000, 0.0723486833
           2, -1.31194545e-01, 1.72850753e-01, -4.91333989e-02, -1.74277405e-01, 1.90007567e-01, -2.61228147e-01, 1.72850753e-01, -4.91333989e-02, -1.31194545e-01, -7.59004765e-01, 0.00000000e+00, 0.00000000e+00, -2.89899397e+00, -2.66000735e+00, -2.87516626e+00, -2.83364278e+00, -2.08981760e+00, 2.0000000000, 1.0010000000, 0.1115472667
           3, -1.37863248e-01, 1.24234808e-01, -1.35525342e-02, -1.88775606e-01, 1.85162386e-01, -1.51956262e-01, 1.24234808e-01, -1.35525342e-02, -1.37863248e-01, -1.10969905e+00, 0.00000000e+00, 0.00000000e+00, -2.89915137e+00, -2.65065622e+00, -2.86133743e+00, -2.81769190e+00, -2.09414762e+00, 2.0000000000, 1.0010000000, 0.1515886500
           4, -1.47594455e-01, 1.05585179e-01, 1.99379886e-04, -2.04928530e-01, 1.92058195e-01, -1.04946224e-01, 1.05585179e-01, 1.99379886e-04, -1.47594455e-01, -1.39787095e+00, 0.00000000e+00, 0.00000000e+00, -2.92094683e+00, -2.66443141e+00, -2.87305720e+00, -2.82998972e+00, -2.12106818e+00, 2.0000000000, 1.0011814114, 0.1920763333
           5, -1.51355345e-01, 1.00862130e-01, 2.53534334e-03, -2.10426558e-01, 1.94543904e-01, -9.00783654e-02, 1.00862130e-01, 2.53534334e-03, -1.51355345e-01, -1.50061619e+00, 0.00000000e+00, 0.00000000e+00, -2.92320803e+00, -2.67932804e+00, -2.89437615e+00, -2.85274977e+00, -2.12771429e+00, 2.0000000000, 1.0266218525, 0.2324363333
