TITLE = "Visualization of the surface solution"
VARIABLES = "x","y","z","Density","X-Momentum","Y-Momentum","Z-Momentum","Energy","Pressure","Temperature","Mach","C<sub>p</sub>"
ZONE NODES= 19990, ELEMENTS= 39826, DATAPACKING=POINT, ZONETYPE=FEQUADRILATERAL
1.267884e-02	1.760424e-02	-2.636822e-02	1.077169e+00	1.203819e-01	2.885494e-01	-9.829173e-02	1.246039e+01	4.964213e+00	1.032320e+00	1.197840e-01	9.998549e-01	
1.190682e-02	1.421929e-02	-4.170212e-02	1.050520e+00	8.765392e-02	2.545285e-01	-2.275392e-01	1.210652e+01	4.818954e+00	1.027535e+00	1.324012e-01	7.093357e-01	
7.331989e-04	0.000000e+00	-2.799974e-02	1.081307e+00	1.275743e-01	5.880712e-02	-1.402216e-01	1.262952e+01	5.044520e+00	1.045007e+00	7.182493e-02	1.160469e+00	
3.049003e+00	3.225224e+00	3.159634e-01	9.938552e-01	7.632540e-01	-4.681398e-02	-3.067709e-02	1.144413e+01	4.459789e+00	1.005169e+00	3.072210e-01	-8.993068e-03	
3.040401e+00	3.237633e+00	3.125438e-01	9.907202e-01	7.641766e-01	-1.074385e-01	5.328306e-02	1.138366e+01	4.432673e+00	1.002219e+00	3.119640e-01	-6.322466e-02	
3.052509e+00	3.237633e+00	3.168558e-01	1.037065e+00	8.743205e-01	-5.588546e-02	-1.023170e-02	1.211201e+01	4.696760e+00	1.014473e+00	3.355209e-01	4.649481e-01	
3.038063e+00	3.224380e+00	3.120885e-01	9.705022e-01	7.894299e-01	2.577696e-02	2.465185e-01	1.124762e+01	4.357960e+00	1.005853e+00	3.400367e-01	-2.126518e-01	
3.028302e+00	3.237633e+00	3.082889e-01	9.738012e-01	8.377646e-01	-1.857807e-01	1.527481e-01	1.126269e+01	4.349050e+00	1.000397e+00	3.579510e-01	-2.304705e-01	
2.199697e+00	3.237633e+00	2.593517e-01	1.072794e+00	5.246684e-01	5.346475e-01	-3.113654e-01	1.270521e+01	4.959398e+00	1.035525e+00	2.972353e-01	9.902248e-01	
2.194670e+00	3.229290e+00	2.563720e-01	1.015341e+00	5.880968e-01	5.738599e-01	-1.607104e-01	1.189410e+01	4.619558e+00	1.019147e+00	3.267301e-01	3.105451e-01	
2.197682e+00	3.237633e+00	2.720563e-01	1.073852e+00	4.754536e-01	5.342630e-01	-7.732310e-02	1.267989e+01	4.975581e+00	1.037881e+00	2.630179e-01	1.022590e+00	
2.613512e+00	2.660396e+00	1.870348e-01	9.780617e-01	8.645682e-01	-2.149396e-02	2.699935e-01	1.128028e+01	4.344263e+00	9.949423e-01	3.714695e-01	-2.400453e-01	
2.640728e+00	2.669207e+00	1.947728e-01	9.853764e-01	8.440786e-01	-3.573417e-02	2.747383e-01	1.139813e+01	4.399064e+00	1.000014e+00	3.606249e-01	-1.304437e-01	
2.648268e+00	2.640321e+00	1.971941e-01	9.907985e-01	8.362751e-01	9.051200e-03	2.589628e-01	1.147553e+01	4.435489e+00	1.002777e+00	3.529625e-01	-5.759302e-02	
1.910690e+00	2.218729e-01	2.410584e-03	9.922167e-01	8.213099e-01	9.426180e-04	2.638764e-01	1.138901e+01	4.405601e+00	9.945958e-01	3.487142e-01	-1.173694e-01	
1.924672e+00	2.473939e-01	6.415780e-03	9.820121e-01	8.410268e-01	1.549088e-02	2.607326e-01	1.121928e+01	4.329762e+00	9.876322e-01	3.609522e-01	-2.690467e-01	
1.940220e+00	2.229930e-01	1.177415e-02	1.000012e+00	8.693774e-01	1.275875e-02	2.744941e-01	1.153009e+01	4.445774e+00	9.958414e-01	3.654648e-01	-3.702313e-02	
1.047319e+00	1.492514e+00	3.492965e-02	9.577426e-01	6.676958e-01	2.869671e-01	-6.067510e-01	1.135686e+01	4.355571e+00	1.018695e+00	3.917592e-01	-2.174300e-01	
1.048936e+00	1.510157e+00	4.910242e-02	9.901663e-01	6.536744e-01	3.714756e-01	-5.828575e-01	1.183036e+01	4.549346e+00	1.029174e+00	3.788205e-01	1.701208e-01	
1.061050e+00	1.508922e+00	3.388962e-02	9.510965e-01	7.134090e-01	3.065362e-01	-5.962862e-01	1.125537e+01	4.300595e+00	1.012866e+00	4.091190e-01	-3.273819e-01	
1.674271e+00	2.413198e+00	1.282236e-01	9.573213e-01	7.746352e-01	2.463728e-01	-5.473032e-01	1.118119e+01	4.271852e+00	9.995545e-01	4.095458e-01	-3.848678e-01	
1.668768e+00	2.421361e+00	1.398109e-01	9.443298e-01	6.427886e-01	3.209683e-01	-3.663688e-01	1.093315e+01	4.235508e+00	1.004685e+00	3.408157e-01	-4.575546e-01	
1.683471e+00	2.428177e+00	1.306361e-01	9.599785e-01	7.706620e-01	2.557874e-01	-4.973025e-01	1.117778e+01	4.282222e+00	9.992076e-01	3.969101e-01	-3.641271e-01	
1.095621e+00	1.566119e+00	4.426783e-02	9.258527e-01	6.692534e-01	3.345841e-01	-6.110700e-01	1.104926e+01	4.218105e+00	1.020525e+00	4.131484e-01	-4.923607e-01	
1.097363e+00	1.581772e+00	5.654565e-02	9.795044e-01	6.703238e-01	3.209914e-01	-6.140605e-01	1.173090e+01	4.502582e+00	1.029682e+00	3.879829e-01	7.659318e-02	
1.109583e+00	1.580146e+00	4.103507e-02	9.617808e-01	6.546352e-01	2.473531e-01	-5.861017e-01	1.147471e+01	4.416612e+00	1.028635e+00	3.743173e-01	-9.534658e-02	
2.743584e+00	2.664963e+00	2.260255e-01	1.000684e+00	7.466256e-01	6.047530e-02	2.403110e-01	1.157796e+01	4.507498e+00	1.008989e+00	3.130507e-01	8.642411e-02	
2.758605e+00	2.647763e+00	2.311337e-01	1.024627e+00	7.586939e-01	3.315166e-02	2.557931e-01	1.197709e+01	4.665494e+00	1.019953e+00	3.097569e-01	4.024170e-01	
2.740892e+00	2.644364e+00	2.255163e-01	9.941356e-01	7.590150e-01	3.541039e-02	2.247374e-01	1.146114e+01	4.458144e+00	1.004515e+00	3.181040e-01	-1.228295e-02	
1.144583e+00	1.635530e+00	4.939770e-02	9.835136e-01	7.174697e-01	2.818667e-01	-5.784769e-01	1.151207e+01	4.415943e+00	1.005752e+00	3.908465e-01	-9.668578e-02	
1.144816e+00	1.651742e+00	6.363825e-02	1.002372e+00	7.044680e-01	3.015055e-01	-4.566939e-01	1.180886e+01	4.564772e+00	1.020089e+00	3.524522e-01	2.009717e-01	
1.159240e+00	1.652969e+00	4.832309e-02	9.593463e-01	7.344862e-01	2.505786e-01	-5.519940e-01	1.117742e+01	4.281891e+00	9.997887e-01	3.971219e-01	-3.647895e-01	
2.158471e+00	4.104225e-01	8.009347e-02	9.973652e-01	7.049991e-01	2.870675e-02	2.537125e-01	1.139148e+01	4.443850e+00	9.980521e-01	3.010104e-01	-4.087168e-02	
2.171384e+00	4.225962e-01	8.422910e-02	1.007257e+00	7.011217e-01	1.702354e-02	2.542821e-01	1.155005e+01	4.509518e+00	1.002854e+00	2.958295e-01	9.046479e-02	
2.183288e+00	4.004107e-01	8.892144e-02	1.037190e+00	7.295454e-01	3.148415e-02	2.499145e-01	1.203337e+01	4.698485e+00	1.014723e+00	2.954855e-01	4.683978e-01	
1.191286e+00	1.705052e+00	5.704834e-02	9.901684e-01	6.109753e-01	3.713869e-01	-5.350277e-01	1.152708e+01	4.449754e+00	1.006642e+00	3.595602e-01	-2.906374e-02	
1.193664e+00	1.722006e+00	6.922870e-02	9.696239e-01	5.344428e-01	4.273209e-01	-4.338305e-01	1.121566e+01	4.350863e+00	1.005125e+00	3.333838e-01	-2.268451e-01	
1.208019e+00	1.720490e+00	5.248397e-02	9.704797e-01	6.787793e-01	3.706353e-01	-5.412943e-01	1.128755e+01	4.331377e+00	9.997410e-01	3.891310e-01	-2.658182e-01	
1.348814e+00	1.938564e+00	8.207069e-02	1.018504e+00	7.314951e-01	2.600186e-01	-5.263449e-01	1.205492e+01	4.649218e+00	1.022505e+00	3.642842e-01	3.698643e-01	
1.350982e+00	1.954405e+00	9.325923e-02	9.858656e-01	6.490991e-01	3.581570e-01	-4.736115e-01	1.162178e+01	4.491708e+00	1.020568e+00	3.533195e-01	5.484535e-02	
1.364188e+00	1.951811e+00	7.731915e-02	9.950814e-01	7.998859e-01	3.287949e-01	-4.955603e-01	1.169735e+01	4.479256e+00	1.008313e+00	3.990143e-01	2.994090e-02	
1.918180e+00	2.776392e+00	1.685248e-01	9.967366e-01	8.572687e-01	2.186841e-01	-5.365936e-01	1.182938e+01	4.516920e+00	1.015103e+00	4.121463e-01	1.052681e-01	
1.919857e+00	2.791790e+00	1.781903e-01	9.638671e-01	6.990277e-01	2.419757e-01	-5.276277e-01	1.128770e+01	4.343775e+00	1.009481e+00	3.752962e-01	-2.410223e-01	
1.931050e+00	2.789519e+00	1.667279e-01	9.459581e-01	7.760324e-01	2.340797e-01	-6.332362e-01	1.108010e+01	4.208350e+00	9.965245e-01	4.357010e-01	-5.118715e-01	
2.052631e+00	6.637191e-01	4.011204e-02	9.792254e-01	8.090507e-01	2.238747e-02	2.703105e-01	1.118332e+01	4.324611e+00	9.892644e-01	3.504501e-01	-2.793499e-01	
2.051762e+00	6.874024e-01	3.947321e-02	1.007003e+00	8.289219e-01	1.879312e-03	2.838584e-01	1.163878e+01	4.503044e+00	1.001667e+00	3.477448e-01	7.751567e-02	
2.075772e+00	6.727090e-01	4.728015e-02	1.019980e+00	8.344631e-01	-1.855731e-03	2.909915e-01	1.186278e+01	4.591969e+00	1.008452e+00	3.451187e-01	2.553668e-01	
1.511925e+00	1.624958e+00	-4.766242e-02	8.991117e-01	1.108852e+00	-1.223121e-01	4.212959e-02	1.046845e+01	3.910152e+00	9.741550e-01	5.032008e-01	-1.108266e+00	
1.515265e+00	1.666618e+00	-4.212296e-02	8.976758e-01	1.102271e+00	-1.342534e-01	2.089258e-02	1.043735e+01	3.900126e+00	9.732114e-01	5.016486e-01	-1.128319e+00	
1.548639e+00	1.647766e+00	-4.389004e-02	8.984385e-01	1.107947e+00	-1.292541e-01	4.646924e-02	1.046380e+01	3.908057e+00	9.743625e-01	5.035495e-01	-1.112457e+00	
1.500468e+00	2.162236e+00	1.053186e-01	9.863282e-01	7.081547e-01	3.603382e-01	-5.198776e-01	1.174956e+01	4.517005e+00	1.025834e+00	3.801953e-01	1.054394e-01	
1.502242e+00	2.178227e+00	1.167495e-01	1.020728e+00	6.104409e-01	3.320199e-01	-4.981683e-01	1.217614e+01	4.727217e+00	1.037394e+00	3.289659e-01	5.258635e-01	
1.512551e+00	2.175183e+00	1.035426e-01	1.021896e+00	6.849041e-01	2.116869e-01	-4.678837e-01	1.216315e+01	4.721836e+00	1.035028e+00	3.293638e-01	5.151008e-01	
1.244059e+00	5.126039e-01	-1.635767e-01	9.483579e-01	1.000964e+00	-1.686856e-02	1.757332e-01	1.097631e+01	4.172655e+00	9.855717e-01	4.318311e-01	-5.832621e-01	
1.273012e+00	4.909649e-01	-1.594528e-01	9.525260e-01	1.003647e+00	-2.536247e-02	1.845776e-01	1.105090e+01	4.201570e+00	9.880587e-01	4.312506e-01	-5.254324e-01	
1.239606e+00	4.729304e-01	-1.661361e-01	9.449742e-01	9.997712e-01	-3.257338e-02	1.719117e-01	1.091937e+01	4.149720e+00	9.836641e-01	4.331800e-01	-6.291324e-01	
1.255698e+00	1.842886e+00	1.180243e-01	1.044823e+00	4.274692e-01	3.888858e-01	-3.317153e-01	1.229392e+01	4.832577e+00	1.036058e+00	2.506197e-01	7.365827e-01	
1.258259e+00	1.836764e+00	1.011167e-01	1.003657e+00	4.730319e-01	4.252653e-01	-4.308152e-01	1.178355e+01	4.595806e+00	1.025710e+00	3.023197e-01	2.630404e-01	
1.247778e+00	1.829927e+00	1.141275e-01	1.027780e+00	5.371109e-01	4.243265e-01	-3.804872e-01	1.210485e+01	4.722593e+00	1.029268e+00	3.004252e-01	5.166136e-01	
1.629744e+00	2.353697e+00	1.257977e-01	9.731578e-01	6.473873e-01	2.612692e-01	-5.190301e-01	1.130107e+01	4.364902e+00	1.004707e+00	3.567281e-01	-1.987674e-01	
1.630713e+00	2.370187e+00	1.384151e-01	9.671425e-01	6.052033e-01	2.883966e-01	-4.082000e-01	1.116315e+01	4.337858e+00	1.004692e+00	3.238683e-01	-2.528551e-01	
1.643415e+00	2.365861e+00	1.221692e-01	9.377886e-01	7.568190e-01	2.481965e-01	-4.406984e-01	1.080242e+01	4.144255e+00	9.898959e-01	3.902389e-01	-6.400615e-01	
2.906728e+00	2.958416e+00	2.735283e-01	1.013641e+00	7.504909e-01	7.011468e-03	2.833464e-01	1.167823e+01	4.544311e+00	1.004227e+00	3.159061e-01	1.600514e-01	
2.918061e+00	2.951479e+00	2.775323e-01	1.036533e+00	7.455565e-01	-4.211974e-03	2.887300e-01	1.206112e+01	4.701107e+00	1.015933e+00	3.061085e-01	4.736424e-01	
2.904271e+00	2.942066e+00	2.730768e-01	1.027972e+00	7.516828e-01	3.613108e-03	2.834747e-01	1.190184e+01	4.635168e+00	1.010026e+00	3.110473e-01	3.417652e-01	
1.482877e+00	1.966190e+00	2.363171e-02	9.328123e-01	1.119850e+00	-6.464834e-02	-3.932265e-01	1.094164e+01	4.073730e+00	9.782414e-01	5.153399e-01	-7.811108e-01	
1.463683e+00	1.957055e+00	2.654687e-02	9.388649e-01	1.104373e+00	-6.692873e-02	-3.816518e-01	1.100854e+01	4.111623e+00	9.809756e-01	5.034459e-01	-7.053254e-01	
1.466907e+00	1.982199e+00	3.422162e-02	9.336488e-01	1.062656e+00	-1.756230e-02	-4.634345e-01	1.093903e+01	4.087642e+00	9.807026e-01	5.016015e-01	-7.532878e-01	
1.410045e+00	2.070337e+00	1.397807e-01	1.059337e+00	3.760557e-01	5.125435e-01	-4.319393e-01	1.259061e+01	4.924725e+00	1.041348e+00	2.843857e-01	9.208789e-01	
1.413101e+00	2.065152e+00	1.238026e-01	1.037221e+00	5.728728e-01	5.011272e-01	-3.841868e-01	1.224196e+01	4.756619e+00	1.027248e+00	3.244082e-01	5.846664e-01	
1.402675e+00	2.056515e+00	1.328618e-01	1.035958e+00	5.325007e-01	4.765338e-01	-3.401004e-01	1.220987e+01	4.763034e+00	1.029887e+00	3.011048e-01	5.974963e-01	
2.774766e+00	2.847636e+00	2.330126e-01	9.792973e-01	8.223015e-01	-4.025956e-02	2.156753e-01	1.126870e+01	4.359555e+00	9.971849e-01	3.481143e-01	-2.094607e-01	
2.792865e+00	2.838483e+00	2.387875e-01	9.717315e-01	7.952077e-01	-1.725504e-02	2.316990e-01	1.113352e+01	4.312146e+00	9.940201e-01	3.420463e-01	-3.042797e-01	
2.774470e+00	2.829524e+00	2.331739e-01	9.686881e-01	8.047652e-01	-1.666094e-02	2.169285e-01	1.108569e+01	4.290787e+00	9.922042e-01	3.455910e-01	-3.469966e-01	
1.339645e+00	1.786665e+00	9.695536e-03	9.149019e-01	1.089018e+00	-4.392514e-02	-4.275057e-01	1.084546e+01	4.038558e+00	9.887803e-01	5.147530e-01	-8.514555e-01	
1.337167e+00	1.810305e+00	1.974356e-02	9.590396e-01	1.078870e+00	-8.767322e-03	-4.906335e-01	1.147048e+01	4.295239e+00	1.003226e+00	4.935427e-01	-3.380929e-01	
1.360230e+00	1.803857e+00	8.530948e-03	9.440549e-01	1.127535e+00	-8.161175e-02	-4.669142e-01	1.128037e+01	4.195216e+00	9.954172e-01	5.194294e-01	-5.381385e-01	
1.770461e+00	2.563609e+00	1.492385e-01	9.542761e-01	6.957019e-01	2.367966e-01	-6.159224e-01	1.116319e+01	4.272578e+00	1.002915e+00	4.013417e-01	-3.834161e-01	
1.776564e+00	2.578587e+00	1.547885e-01	9.710546e-01	7.438442e-01	2.560854e-01	-5.739805e-01	1.146347e+01	4.390066e+00	1.012687e+00	3.986209e-01	-1.484393e-01	
1.785311e+00	2.574763e+00	1.440272e-01	9.416226e-01	6.996469e-01	2.134901e-01	-5.467307e-01	1.098938e+01	4.218611e+00	1.003554e+00	3.872535e-01	-4.913494e-01	
1.810747e+00	2.624078e+00	1.562289e-01	1.009234e+00	7.914669e-01	2.733065e-01	-5.716255e-01	1.188183e+01	4.549039e+00	1.009662e+00	3.998985e-01	1.695063e-01	
1.814823e+00	2.641692e+00	1.662180e-01	1.014574e+00	7.219503e-01	2.749254e-01	-5.962172e-01	1.197795e+01	4.603463e+00	1.016363e+00	3.816209e-01	2.783536e-01	
1.825156e+00	2.635139e+00	1.513124e-01	1.005896e+00	8.254038e-01	2.527860e-01	-5.682797e-01	1.181184e+01	4.512360e+00	1.004844e+00	4.099873e-01	9.614892e-02	
2.090890e+00	2.068586e+00	5.306897e-02	9.520237e-01	9.851139e-01	-3.143183e-02	1.862631e-01	1.104008e+01	4.204665e+00	9.893084e-01	4.237149e-01	-5.192408e-01	
2.084665e+00	2.042013e+00	5.099104e-02	9.653754e-01	1.000175e+00	-3.984294e-02	1.898870e-01	1.124424e+01	4.282652e+00	9.937211e-01	4.234762e-01	-3.632681e-01	
2.054034e+00	2.071373e+00	4.607644e-02	9.620232e-01	9.970925e-01	-3.352525e-02	1.628803e-01	1.119263e+01	4.264616e+00	9.929843e-01	4.217900e-01	-3.993395e-01	
1.234384e+00	1.755525e+00	5.377366e-02	9.800217e-01	7.964583e-01	3.212940e-01	-5.994669e-01	1.178881e+01	4.491664e+00	1.026643e+00	4.218958e-01	5.475635e-02	
1.231146e+00	1.771330e+00	6.942744e-02	1.033158e+00	7.723687e-01	3.150473e-01	-6.361454e-01	1.255718e+01	4.809837e+00	1.042825e+00	3.977227e-01	6.911019e-01	
1.248320e+00	1.773261e+00	5.396685e-02	1.021526e+00	7.839383e-01	1.362461e-01	-4.886229e-01	1.230287e+01	4.750446e+00	1.041677e+00	3.582376e-01	5.723200e-01	
1.228059e+00	1.783817e+00	8.597129e-02	1.005517e+00	5.757422e-01	3.565506e-01	-5.415472e-01	1.218353e+01	4.723861e+00	1.052339e+00	3.362538e-01	5.191501e-01	
1.215508e+00	1.766428e+00	8.542711e-02	1.020743e+00	5.449052e-01	4.946075e-01	-5.211956e-01	1.215192e+01	4.701434e+00	1.031720e+00	3.479061e-01	4.742971e-01	
2.779355e-01	1.796553e-01	-1.851708e-01	9.484819e-01	9.798413e-01	2.131426e-02	-4.423423e-01	1.121297e+01	4.241387e+00	1.001675e+00	4.530914e-01	-4.457965e-01	
2.560639e-01	1.705612e-01	-1.790535e-01	9.420097e-01	9.586814e-01	3.243110e-02	-4.542192e-01	1.111073e+01	4.205137e+00	9.999372e-01	4.506835e-01	-5.182982e-01	
2.614833e-01	1.936070e-01	-1.714530e-01	9.503333e-01	9.608984e-01	5.767173e-02	-4.457979e-01	1.121957e+01	4.250987e+00	1.001986e+00	4.460712e-01	-4.265983e-01	
1.953773e+00	2.833891e+00	1.774985e-01	9.690354e-01	6.748598e-01	2.066070e-01	-5.609778e-01	1.127444e+01	4.342016e+00	1.003690e+00	3.714644e-01	-2.445398e-01	
1.956137e+00	2.850082e+00	1.876415e-01	1.009340e+00	6.631824e-01	2.929974e-01	-5.232527e-01	1.187520e+01	4.591670e+00	1.019016e+00	3.510169e-01	2.547695e-01	
1.965692e+00	2.845993e+00	1.756232e-01	9.428706e-01	7.337171e-01	2.172912e-01	-5.162812e-01	1.086805e+01	4.166476e+00	9.898394e-01	3.936148e-01	-5.956203e-01	
1.917004e+00	2.325462e+00	4.899943e-02	9.121090e-01	1.091691e+00	-9.387005e-02	3.790757e-03	1.064462e+01	3.994588e+00	9.810096e-01	4.851527e-01	-9.393960e-01	
1.920760e+00	2.288330e+00	4.472170e-02	9.201251e-01	1.104241e+00	-8.792873e-02	-3.856358e-04	1.076348e+01	4.038673e+00	9.831954e-01	4.856568e-01	-8.512246e-01	
1.888801e+00	2.299657e+00	4.521704e-02	9.229851e-01	1.096565e+00	-8.275243e-02	-2.202223e-02	1.082762e+01	4.068900e+00	9.874846e-01	4.796835e-01	-7.907716e-01	
2.045696e+00	2.260174e-01	4.622515e-02	1.029130e+00	8.226639e-01	1.151553e-02	3.194888e-01	1.194910e+01	4.628254e+00	1.007384e+00	3.417873e-01	3.279367e-01	
2.020708e+00	2.219650e-01	3.799251e-02	1.029121e+00	8.323115e-01	2.230433e-02	2.826748e-01	1.190168e+01	4.610420e+00	1.003511e+00	3.411638e-01	2.922683e-01	
2.027829e+00	2.460934e-01	3.984000e-02	1.019516e+00	8.377380e-01	-4.949368e-05	2.975026e-01	1.177094e+01	4.553341e+00	1.000424e+00	3.487172e-01	1.781104e-01	
5.390620e-01	7.665928e-01	-1.705148e-02	1.017385e+00	5.671290e-01	4.710214e-01	-5.652319e-01	1.252229e+01	4.839269e+00	1.065473e+00	3.538381e-01	7.499664e-01	
5.558527e-01	7.763457e-01	-3.134312e-02	9.989765e-01	6.123929e-01	3.825368e-01	-4.652893e-01	1.208649e+01	4.686873e+00	1.050935e+00	3.355072e-01	4.451739e-01	
5.434161e-01	7.561326e-01	-3.506140e-02	9.803517e-01	5.913901e-01	4.092147e-01	-5.606353e-01	1.190834e+01	4.593702e+00	1.049612e+00	3.631596e-01	2.588335e-01	
2.239295e+00	2.481931e+00	9.625606e-02	9.381017e-01	1.007099e+00	-8.116927e-02	1.532940e-01	1.089681e+01	4.136076e+00	9.876126e-01	4.384668e-01	-6.564196e-01	
2.236493e+00	2.520255e+00	9.746151e-02	9.357451e-01	1.010067e+00	-7.831217e-02	1.485452e-01	1.085366e+01	4.117379e+00	9.856241e-01	4.408769e-01	-6.938132e-01	
2.269177e+00	2.506226e+00	1.026879e-01	9.483013e-01	1.023079e+00	-7.271139e-02	1.775408e-01	1.106760e+01	4.198526e+00	9.917417e-01	4.408880e-01	-5.315186e-01	
1.383837e+00	2.013741e+00	1.092686e-01	1.014354e+00	5.679817e-01	2.599148e-01	-4.585284e-01	1.180551e+01	4.603821e+00	1.016663e+00	3.030435e-01	2.790709e-01	
1.386867e+00	2.001624e+00	9.359484e-02	9.646919e-01	6.156490e-01	2.285967e-01	-5.018348e-01	1.115995e+01	4.322356e+00	1.003644e+00	3.420813e-01	-2.838596e-01	
1.371725e+00	1.996969e+00	1.087162e-01	1.019206e+00	5.708576e-01	2.544052e-01	-4.714399e-01	1.189632e+01	4.638267e+00	1.019393e+00	3.043031e-01	3.479629e-01	
1.391365e+00	1.987872e+00	7.869950e-02	1.013152e+00	8.941718e-01	2.828772e-01	-5.624530e-01	1.223285e+01	4.657061e+00	1.029639e+00	4.254936e-01	3.855498e-01	
1.403658e+00	2.004039e+00	7.927482e-02	9.681530e-01	7.712434e-01	7.913874e-02	-5.339829e-01	1.128194e+01	4.329701e+00	1.001756e+00	3.886021e-01	-2.691695e-01	
2.076446e+00	3.016203e+00	1.974985e-01	9.970088e-01	8.264883e-01	2.951327e-01	-5.270163e-01	1.173505e+01	4.483805e+00	1.007386e+00	4.091945e-01	3.903823e-02	
2.080091e+00	3.031654e+00	2.055183e-01	9.825138e-01	7.716079e-01	2.179562e-01	-4.726840e-01	1.155339e+01	4.445009e+00	1.013403e+00	3.764159e-01	-3.855299e-02	
2.089183e+00	3.025802e+00	1.934978e-01	9.384104e-01	8.565813e-01	2.713336e-01	-5.735326e-01	1.097761e+01	4.148869e+00	9.903414e-01	4.565831e-01	-6.308330e-01	
7.540487e-01	2.279612e-01	-2.391157e-01	9.249749e-01	1.145608e+00	-5.518012e-02	5.391270e-02	1.082295e+01	4.044122e+00	9.793598e-01	5.017383e-01	-8.403282e-01	
7.606215e-01	2.607192e-01	-2.350264e-01	9.237371e-01	1.131595e+00	-4.435267e-02	4.574441e-02	1.080343e+01	4.043247e+00	9.804601e-01	4.956499e-01	-8.420768e-01	
7.888026e-01	2.451850e-01	-2.356335e-01	9.254495e-01	1.151175e+00	-4.922526e-02	5.190117e-02	1.083098e+01	4.044897e+00	9.790452e-01	5.038299e-01	-8.387776e-01	
2.114158e+00	3.072580e+00	2.038802e-01	9.603682e-01	8.892993e-01	2.116690e-01	-4.812028e-01	1.151095e+01	4.382129e+00	1.022105e+00	4.255985e-01	-1.643137e-01	
2.118903e+00	3.087175e+00	2.101242e-01	9.305247e-01	8.598766e-01	1.466941e-01	-4.097218e-01	1.113943e+01	4.256146e+00	1.024558e+00	4.092795e-01	-4.162793e-01	
2.126721e+00	3.079721e+00	1.985393e-01	9.949830e-01	9.305844e-01	1.867570e-01	-4.522611e-01	1.190258e+01	4.538837e+00	1.021826e+00	4.181352e-01	1.491026e-01	
1.919549e+00	1.740670e+00	8.531518e-03	9.502477e-01	9.327627e-01	-4.814613e-02	1.822455e-01	1.092421e+01	4.179088e+00	9.851281e-01	4.035893e-01	-5.703960e-01	
1.885138e+00	1.736798e+00	1.909610e-03	9.525645e-01	9.380997e-01	-3.700924e-02	1.663660e-01	1.094894e+01	4.188706e+00	9.849937e-01	4.034127e-01	-5.511598e-01	
1.888827e+00	1.770202e+00	3.943243e-03	9.509900e-01	9.320498e-01	-3.783053e-02	1.609247e-01	1.092288e+01	4.180706e+00	9.847403e-01	4.012250e-01	-5.671590e-01	
1.647692e+00	1.830883e+00	-1.882420e-02	9.249536e-01	1.146078e+00	-1.206845e-01	-2.620990e-02	1.086701e+01	4.059493e+00	9.831050e-01	5.027606e-01	-8.095853e-01	
1.678540e+00	1.857402e+00	-1.457114e-02	9.257637e-01	1.160373e+00	-1.146934e-01	-3.484993e-02	1.088668e+01	4.060679e+00	9.825316e-01	5.084979e-01	-8.072139e-01	
1.684551e+00	1.813673e+00	-1.892611e-02	9.156430e-01	1.126669e+00	-1.084849e-01	2.124678e-02	1.072978e+01	4.011978e+00	9.814776e-01	4.991952e-01	-9.046148e-01	
1.710360e+00	1.885316e+00	-9.931075e-03	9.459696e-01	1.126842e+00	-1.192174e-01	1.987093e-02	1.114300e+01	4.185653e+00	9.911380e-01	4.813517e-01	-5.572647e-01	
1.672936e+00	1.900580e+00	-9.600591e-03	9.250551e-01	1.137099e+00	-1.213382e-01	-2.641185e-02	1.087564e+01	4.067373e+00	9.849051e-01	4.983884e-01	-7.938256e-01	
9.546155e-01	1.083703e+00	-1.002024e-01	8.926015e-01	1.128495e+00	-9.279741e-02	-3.209009e-01	1.045826e+01	3.872956e+00	9.719255e-01	5.349642e-01	-1.182660e+00	
9.262055e-01	1.081532e+00	-9.359502e-02	9.086849e-01	1.152592e+00	-6.020590e-02	-3.668401e-01	1.071495e+01	3.963168e+00	9.769610e-01	5.393534e-01	-1.002235e+00	
9.329208e-01	1.103287e+00	-8.871542e-02	9.224330e-01	1.148199e+00	-6.580171e-02	-3.597722e-01	1.091680e+01	4.051871e+00	9.839403e-01	5.267969e-01	-8.248300e-01	
2.307788e+00	9.451927e-01	1.180387e-01	1.006141e+00	7.457968e-01	3.777502e-02	2.469612e-01	1.155133e+01	4.497561e+00	1.001304e+00	3.124880e-01	6.654970e-02	
2.327730e+00	9.578859e-01	1.245554e-01	9.895567e-01	7.675762e-01	3.154140e-02	2.418460e-01	1.126910e+01	4.376539e+00	9.906908e-01	3.270830e-01	-1.754936e-01	
2.329279e+00	9.390120e-01	1.255671e-01	1.001982e+00	8.074323e-01	1.270448e-02	2.453593e-01	1.144604e+01	4.436235e+00	9.917512e-01	3.383243e-01	-5.610159e-02	
2.611516e+00	1.812973e+00	2.007612e-01	1.042937e+00	7.044662e-01	1.014750e-01	2.375482e-01	1.214538e+01	4.750189e+00	1.020236e+00	2.849084e-01	5.718064e-01	
2.602683e+00	1.821310e+00	1.974612e-01	1.044100e+00	7.146478e-01	9.650196e-02	2.019623e-01	1.214510e+01	4.750613e+00	1.019191e+00	2.841862e-01	5.726547e-01	
2.621686e+00	1.822133e+00	2.040792e-01	1.040012e+00	7.254891e-01	9.484710e-02	2.288934e-01	1.208601e+01	4.721383e+00	1.016901e+00	2.923939e-01	5.141953e-01	
2.619275e+00	1.803325e+00	2.037474e-01	1.027005e+00	7.298171e-01	1.042075e-01	2.430231e-01	1.187263e+01	4.631711e+00	1.010222e+00	3.007990e-01	3.348510e-01	
2.600357e+00	1.803409e+00	1.971220e-01	1.015593e+00	7.006356e-01	1.082558e-01	1.804645e-01	1.167092e+01	4.562975e+00	1.006413e+00	2.872108e-01	1.973777e-01	
1.361543e+00	1.351528e+00	-8.523969e-02	9.237685e-01	1.175716e+00	-1.165184e-01	-4.144000e-02	1.083063e+01	4.029665e+00	9.771332e-01	5.178590e-01	-8.692421e-01	
1.322227e+00	1.334564e+00	-8.790852e-02	9.305430e-01	1.179664e+00	-1.183457e-01	-7.269274e-02	1.092037e+01	4.064908e+00	9.785032e-01	5.161668e-01	-7.987564e-01	
1.319766e+00	1.360934e+00	-8.415914e-02	9.342782e-01	1.183125e+00	-1.057710e-01	-7.617345e-02	1.097814e+01	4.087969e+00	9.801203e-01	5.147479e-01	-7.526336e-01	
2.720671e+00	2.328274e+00	2.253291e-01	9.947265e-01	7.376324e-01	3.735020e-02	2.553044e-01	1.140835e+01	4.440557e+00	9.999581e-01	3.142470e-01	-4.745655e-02	
2.734664e+00	2.315465e+00	2.304168e-01	9.960913e-01	7.522156e-01	3.007062e-02	2.500292e-01	1.142429e+01	4.443375e+00	9.992216e-01	3.186695e-01	-4.182208e-02	
2.715876e+00	2.311057e+00	2.241104e-01	9.885276e-01	7.366162e-01	3.546983e-02	2.268477e-01	1.128320e+01	4.392835e+00	9.954148e-01	3.129283e-01	-1.429014e-01	
2.679278e+00	2.029259e+00	2.186578e-01	1.036740e+00	7.262108e-01	4.908360e-02	2.457703e-01	1.207024e+01	4.714238e+00	1.018567e+00	2.936924e-01	4.999055e-01	
2.669518e+00	2.042865e+00	2.148859e-01	1.049369e+00	7.481606e-01	6.984578e-02	2.331580e-01	1.228193e+01	4.794798e+00	1.023505e+00	2.964332e-01	6.610253e-01	
2.687614e+00	2.042644e+00	2.212212e-01	1.010781e+00	7.083720e-01	7.853103e-02	2.427141e-01	1.164370e+01	4.545315e+00	1.007291e+00	2.968701e-01	1.620591e-01	
2.090116e+00	7.741334e-01	5.016863e-02	1.001471e+00	8.510764e-01	-2.902613e-03	2.842522e-01	1.159215e+01	4.476067e+00	1.001166e+00	3.581820e-01	2.356284e-02	
2.103812e+00	7.508401e-01	5.487776e-02	9.956525e-01	8.448708e-01	-1.068641e-03	2.852825e-01	1.149955e+01	4.440086e+00	9.989221e-01	3.584453e-01	-4.839905e-02	
2.078375e+00	7.480219e-01	4.688652e-02	9.942374e-01	8.354842e-01	-3.066220e-03	2.764124e-01	1.144870e+01	4.423694e+00	9.966508e-01	3.546453e-01	-8.118294e-02	
8.623441e-01	3.976661e-01	-2.152316e-01	9.205701e-01	1.127833e+00	-7.515786e-02	4.998483e-02	1.074865e+01	4.021339e+00	9.785022e-01	4.969966e-01	-8.858932e-01	
8.912257e-01	4.195628e-01	-2.114065e-01	9.174053e-01	1.122577e+00	-7.430638e-02	6.252752e-02	1.070387e+01	4.004766e+00	9.778313e-01	4.968233e-01	-9.190387e-01	
9.022267e-01	3.803931e-01	-2.147824e-01	9.162171e-01	1.116984e+00	-6.492074e-02	7.276498e-02	1.068325e+01	3.998877e+00	9.776596e-01	4.950663e-01	-9.308182e-01	
2.297998e+00	2.408011e+00	1.055797e-01	9.564162e-01	9.820195e-01	-3.468927e-02	2.001993e-01	1.109620e+01	4.228185e+00	9.902733e-01	4.214616e-01	-4.722018e-01	
2.287198e+00	2.437135e+00	1.040200e-01	9.652118e-01	9.977696e-01	-3.460363e-02	1.805821e-01	1.123826e+01	4.282015e+00	9.937418e-01	4.217766e-01	-3.645420e-01	
2.323695e+00	2.431489e+00	1.117576e-01	9.570642e-01	9.868439e-01	-4.103769e-02	1.811038e-01	1.108798e+01	4.224475e+00	9.887346e-01	4.220689e-01	-4.796208e-01	
2.737530e+00	3.186644e+00	2.209656e-01	9.886274e-01	9.442861e-01	-9.994692e-02	2.684583e-01	1.146257e+01	4.388039e+00	9.942278e-01	4.004100e-01	-1.524929e-01	
2.742631e+00	3.171169e+00	2.221782e-01	9.944843e-01	9.266516e-01	-6.791744e-02	2.757152e-01	1.155432e+01	4.432823e+00	9.984595e-01	3.901238e-01	-6.292555e-02	
2.724545e+00	3.174768e+00	2.175897e-01	1.007708e+00	9.703785e-01	-9.262764e-02	2.509973e-01	1.177071e+01	4.507191e+00	1.001888e+00	3.991776e-01	8.580977e-02	
2.790199e+00	2.417117e+00	2.470386e-01	1.007121e+00	6.679180e-01	5.777719e-02	2.637766e-01	1.153848e+01	4.512319e+00	1.003613e+00	2.856221e-01	9.606678e-02	
2.781643e+00	2.429469e+00	2.437284e-01	1.010416e+00	7.309018e-01	3.070779e-02	2.552352e-01	1.158108e+01	4.513608e+00	1.000625e+00	3.066268e-01	9.864405e-02	
2.798681e+00	2.429742e+00	2.496717e-01	1.049829e+00	7.340151e-01	5.201624e-02	2.804656e-01	1.224464e+01	4.779715e+00	1.019839e+00	2.971134e-01	6.308588e-01	
8.183934e-01	2.622079e-01	-2.321779e-01	9.224476e-01	1.144050e+00	-6.231594e-02	3.339586e-02	1.079870e+01	4.034620e+00	9.797357e-01	5.021536e-01	-8.593312e-01	
8.199817e-01	2.312160e-01	-2.352222e-01	9.287662e-01	1.128612e+00	-4.216903e-02	6.034668e-02	1.085172e+01	4.065228e+00	9.804524e-01	4.919343e-01	-7.981160e-01	
1.563782e+00	1.556966e+00	-5.262521e-02	9.228108e-01	1.121650e+00	-9.475749e-02	1.127922e-01	1.078824e+01	4.037925e+00	9.801525e-01	4.953036e-01	-8.527205e-01	
1.531449e+00	1.538728e+00	-5.669536e-02	9.231680e-01	1.115039e+00	-8.924173e-02	8.863966e-02	1.077163e+01	4.035868e+00	9.792739e-01	4.913185e-01	-8.568358e-01	
1.525759e+00	1.578899e+00	-5.272353e-02	9.011826e-01	1.105312e+00	-9.944080e-02	6.709863e-02	1.049649e+01	3.924267e+00	9.754247e-01	4.996639e-01	-1.080038e+00	
2.263515e+00	3.086419e+00	1.570650e-01	9.549786e-01	1.150969e+00	-4.113829e-02	-1.652679e-01	1.123045e+01	4.208668e+00	9.871861e-01	4.904939e-01	-5.112362e-01	
2.280883e+00	3.102999e+00	1.585856e-01	9.311859e-01	1.127175e+00	-2.717956e-02	-1.396079e-01	1.086816e+01	4.070038e+00	9.790617e-01	4.932193e-01	-7.884952e-01	
2.287891e+00	3.080310e+00	1.539169e-01	9.400595e-01	1.145688e+00	-4.010346e-02	-1.355042e-01	1.100729e+01	4.119407e+00	9.815837e-01	4.957767e-01	-6.897581e-01	
2.608511e+00	3.173030e+00	1.913643e-01	9.630861e-01	9.942308e-01	-1.054250e-01	2.219075e-01	1.121059e+01	4.266423e+00	9.923088e-01	4.270007e-01	-3.957246e-01	
2.626531e+00	3.179958e+00	1.952056e-01	9.700830e-01	9.837014e-01	-1.151987e-01	2.051207e-01	1.130330e+01	4.310409e+00	9.953083e-01	4.180354e-01	-3.077530e-01	
2.622755e+00	3.153738e+00	1.936898e-01	9.666973e-01	9.853418e-01	-1.162191e-01	1.941115e-01	1.124174e+01	4.285237e+00	9.929614e-01	4.198042e-01	-3.580977e-01	
1.694748e+00	2.235960e+00	4.914693e-02	9.011020e-01	1.135775e+00	-7.501886e-02	-2.823118e-01	1.059274e+01	3.931845e+00	9.773957e-01	5.265646e-01	-1.064882e+00	
1.680969e+00	2.209181e+00	4.500014e-02	8.984992e-01	1.122637e+00	-7.445233e-02	-2.797976e-01	1.056389e+01	3.926359e+00	9.788594e-01	5.216812e-01	-1.075854e+00	
1.672468e+00	2.228969e+00	5.207855e-02	9.153696e-01	1.158029e+00	-6.087939e-02	-3.070181e-01	1.086483e+01	4.031522e+00	9.865534e-01	5.277561e-01	-8.655269e-01	
2.746197e+00	3.101451e+00	2.229191e-01	9.777333e-01	9.133018e-01	-8.687603e-02	2.890378e-01	1.131966e+01	4.338606e+00	9.939803e-01	3.947035e-01	-2.513596e-01	
2.724696e+00	3.106851e+00	2.172065e-01	9.833684e-01	9.334986e-01	-8.493914e-02	2.892111e-01	1.141892e+01	4.371858e+00	9.958589e-01	3.998480e-01	-1.848551e-01	
2.741654e+00	3.123382e+00	2.217350e-01	9.799921e-01	9.417050e-01	-1.107857e-01	2.808675e-01	1.135057e+01	4.340642e+00	9.921546e-01	4.052380e-01	-2.472882e-01	
1.389660e+00	9.707112e-01	-1.165745e-01	9.404895e-01	1.076574e+00	-7.177110e-02	1.301091e-01	1.097055e+01	4.137057e+00	9.853387e-01	4.656449e-01	-6.544584e-01	
1.352936e+00	9.676879e-01	-1.216944e-01	9.430671e-01	1.065912e+00	-8.294966e-02	1.083314e-01	1.099365e+01	4.152558e+00	9.863275e-01	4.589416e-01	-6.234549e-01	
1.363264e+00	1.001105e+00	-1.181058e-01	9.423833e-01	1.075166e+00	-6.698863e-02	1.034163e-01	1.098968e+01	4.147320e+00	9.857980e-01	4.626443e-01	-6.339319e-01	
1.307791e+00	1.855080e+00	5.930429e-02	9.945970e-01	8.602666e-01	1.780034e-01	-5.599012e-01	1.168870e+01	4.457254e+00	1.003849e+00	4.181578e-01	-1.406356e-02	